                         Program Version 5.0.4 -  RELEASE  -
|  1> !B3LYP DEF2-QZVPP D4 KEEPDENS
|  2>
|  3> %scf
|  4> convergence tight
|  5> end
|  6>
|  7> * xyz 0 1
|  8>   C   -4.88569336155230      2.98207060676121      0.04333537261272
|  9>   C   -6.14959695789773      2.35864301241116      0.02758592588736
| 10>   C   -6.25559380286015      0.96845232728990     -0.00121869885868
| 11>   C   -5.11290643775582      0.16234415122468     -0.01440284580436
| 12>   C   -3.85586007858743      0.77497453451715      0.00208204091935
| 13>   C   -3.73800009771254      2.16417133781313      0.03090801634500
| 14>   H   -7.05256446988853      2.97652953111245      0.03476026878305
| 15>   H   -7.24815752893036      0.50936420781894     -0.01176333836965
| 16>   H   -5.20066374355790     -0.92621478272232     -0.03568755561573
| 17>   H   -2.94935247147236      0.16323446923219     -0.00589977089820
| 18>   H   -2.74782466200470      2.62955680400795      0.04054469739011
| 19>   N   -4.77400026474504      4.36582607320833      0.02173325533785
| 20>   H   -5.57985384924347      4.88619583261605      0.34871705822918
| 21>   H   -3.89604227379165      4.75045189470918      0.35073557404198
| 22> **                         ****END OF INPUT****

CARTESIAN COORDINATES (ANGSTROEM)
---------------------------------
  C     -4.885693    2.982071    0.043335
  C     -6.149597    2.358643    0.027586
  C     -6.255594    0.968452   -0.001219
  C     -5.112906    0.162344   -0.014403
  C     -3.855860    0.774975    0.002082
  C     -3.738000    2.164171    0.030908
  H     -7.052564    2.976530    0.034760
  H     -7.248158    0.509364   -0.011763
  H     -5.200664   -0.926215   -0.035688
  H     -2.949352    0.163234   -0.005900
  H     -2.747825    2.629557    0.040545
  N     -4.774000    4.365826    0.021733
  H     -5.579854    4.886196    0.348717
  H     -3.896042    4.750452    0.350736

 Total Charge           Charge          ....    0
 Multiplicity           Mult            ....    1
 Number of Electrons    NEL             ....   50
 Basis Dimension        Dim             ....  609

ORBITAL ENERGIES
----------------

  NO   OCC          E(Eh)            E(eV)
   0   2.0000     -14.324784      -389.7972
   1   2.0000     -10.216586      -278.0074
   2   2.0000     -10.173637      -276.8387
   3   2.0000     -10.173625      -276.8384
   4   2.0000     -10.169018      -276.7130
   5   2.0000     -10.169002      -276.7126
   6   2.0000     -10.163250      -276.5561
   7   2.0000      -0.920477       -25.0475
   8   2.0000      -0.831980       -22.6393
   9   2.0000      -0.739414       -20.1205
  10   2.0000      -0.721308       -19.6278
  11   2.0000      -0.608126       -16.5479
  12   2.0000      -0.595690       -16.2096
  13   2.0000      -0.522355       -14.2140
  14   2.0000      -0.509707       -13.8698
  15   2.0000      -0.475646       -12.9430
  16   2.0000      -0.428946       -11.6722
  17   2.0000      -0.425773       -11.5859
  18   2.0000      -0.414158       -11.2698
  19   2.0000      -0.383808       -10.4440
  20   2.0000      -0.355620        -9.6769
  21   2.0000      -0.338072        -9.1994
  22   2.0000      -0.313349        -8.5267
  23   2.0000      -0.250448        -6.8150
  24   2.0000      -0.207374        -5.6429
  25   0.0000      -0.009889        -0.2691
  26   0.0000       0.003313         0.0902
  27   0.0000       0.015935         0.4336
  28   0.0000       0.035379         0.9627
  29   0.0000       0.041334         1.1248

MULLIKEN ATOMIC CHARGES
-----------------------
   0 C :    0.194355
   1 C :   -0.041283
   2 C :   -0.076587
   3 C :   -0.087294
   4 C :   -0.077215
   5 C :   -0.039898
   6 H :    0.029887
   7 H :    0.053443
   8 H :    0.052120
   9 H :    0.054141
  10 H :    0.029100
  11 N :   -0.414109
  12 H :    0.161589
  13 H :    0.161751
Sum of atomic charges:   -0.0000000

LOEWDIN ATOMIC CHARGES
----------------------
   0 C :   -0.246872
   1 C :    0.056739
   2 C :    0.048770
   3 C :    0.039255
   4 C :    0.048799
   5 C :    0.056728
   6 H :   -0.062388
   7 H :   -0.056615
   8 H :   -0.064116
   9 H :   -0.056609
  10 H :   -0.062417
  11 N :    0.643162
  12 H :   -0.172179
  13 H :   -0.172256

  Mayer bond orders larger than 0.100000
B(  0-C ,  1-C ) :   1.2334 B(  0-C ,  5-C ) :   1.2325 B(  0-C , 11-N ) :   1.0827
B(  1-C ,  2-C ) :   1.3559 B(  1-C ,  6-H ) :   0.9695 B(  2-C ,  3-C ) :   1.3300
B(  2-C ,  7-H ) :   0.9681 B(  3-C ,  4-C ) :   1.3310 B(  3-C ,  8-H ) :   0.9694
B(  4-C ,  5-C ) :   1.3559 B(  4-C ,  9-H ) :   0.9683 B(  5-C , 10-H ) :   0.9697
B( 11-N , 12-H ) :   0.9930 B( 11-N , 13-H ) :   0.9928

Dispersion correction           -0.020977643
FINAL SINGLE POINT ENERGY      -287.576824940440

DIPOLE MOMENT
-------------
                                X             Y             Z
Electronic contribution:     -0.01338      -0.16800      -0.17889
Nuclear contribution   :      0.05809       0.72683       0.52928
                        -----------------------------------------
Total Dipole Moment    :      0.04471       0.55883       0.35038
                        -----------------------------------------
Magnitude (a.u.)       :      0.66110
Magnitude (Debye)      :      1.68039

Rotational constants in cm-1:     0.186570     0.086136     0.059004
Rotational constants in MHz :  5593.219850  2582.294403  1768.887501

                             ****ORCA TERMINATED NORMALLY****
TOTAL RUN TIME: 0 days 0 hours 29 minutes 17 seconds 166 msec
