                         Program Version 5.0.4 -  RELEASE  -
|  1> !B3LYP DEF2-QZVPP D4 KEEPDENS
|  2>
|  3> %scf
|  4> convergence tight
|  5> end
|  6>
|  7> * xyz 1 2
|  8>   C   -4.88569336155230      2.98207060676121      0.04333537261272
|  9>   C   -6.14959695789773      2.35864301241116      0.02758592588736
| 10>   C   -6.25559380286015      0.96845232728990     -0.00121869885868
| 11>   C   -5.11290643775582      0.16234415122468     -0.01440284580436
| 12>   C   -3.85586007858743      0.77497453451715      0.00208204091935
| 13>   C   -3.73800009771254      2.16417133781313      0.03090801634500
| 14>   H   -7.05256446988853      2.97652953111245      0.03476026878305
| 15>   H   -7.24815752893036      0.50936420781894     -0.01176333836965
| 16>   H   -5.20066374355790     -0.92621478272232     -0.03568755561573
| 17>   H   -2.94935247147236      0.16323446923219     -0.00589977089820
| 18>   H   -2.74782466200470      2.62955680400795      0.04054469739011
| 19>   N   -4.77400026474504      4.36582607320833      0.02173325533785
| 20>   H   -5.57985384924347      4.88619583261605      0.34871705822918
| 21>   H   -3.89604227379165      4.75045189470918      0.35073557404198
| 22> **                         ****END OF INPUT****

CARTESIAN COORDINATES (ANGSTROEM)
---------------------------------
  C     -4.885693    2.982071    0.043335
  C     -6.149597    2.358643    0.027586
  C     -6.255594    0.968452   -0.001219
  C     -5.112906    0.162344   -0.014403
  C     -3.855860    0.774975    0.002082
  C     -3.738000    2.164171    0.030908
  H     -7.052564    2.976530    0.034760
  H     -7.248158    0.509364   -0.011763
  H     -5.200664   -0.926215   -0.035688
  H     -2.949352    0.163234   -0.005900
  H     -2.747825    2.629557    0.040545
  N     -4.774000    4.365826    0.021733
  H     -5.579854    4.886196    0.348717
  H     -3.896042    4.750452    0.350736

 Total Charge           Charge          ....    1
 Multiplicity           Mult            ....    2
 Number of Electrons    NEL             ....   49
 Basis Dimension        Dim             ....  609

ORBITAL ENERGIES
----------------
                 SPIN UP ORBITALS
  NO   OCC          E(Eh)            E(eV)
   0   1.0000     -14.580276      -396.7495
   1   1.0000     -10.450024      -284.3596
   2   1.0000     -10.391969      -282.7799
   3   1.0000     -10.388468      -282.6846
   4   1.0000     -10.388450      -282.6841
   5   1.0000     -10.375966      -282.3444
   6   1.0000     -10.375953      -282.3440
   7   1.0000      -1.157631       -31.5007
   8   1.0000      -1.051272       -28.6066
   9   1.0000      -0.947928       -25.7944
  10   1.0000      -0.945672       -25.7330
  11   1.0000      -0.820387       -22.3239
  12   1.0000      -0.810563       -22.0565
  13   1.0000      -0.734043       -19.9743
  14   1.0000      -0.730676       -19.8827
  15   1.0000      -0.685417       -18.6511
  16   1.0000      -0.642661       -17.4877
  17   1.0000      -0.631267       -17.1776
  18   1.0000      -0.615642       -16.7525
  19   1.0000      -0.613980       -16.7072
  20   1.0000      -0.560484       -15.2515
  21   1.0000      -0.541711       -14.7407
  22   1.0000      -0.540789       -14.7156
  23   1.0000      -0.456603       -12.4248
  24   1.0000      -0.443153       -12.0588
  25   0.0000      -0.211554        -5.7567
  26   0.0000      -0.211392        -5.7523
  27   0.0000      -0.147908        -4.0248
  28   0.0000      -0.115185        -3.1344
  29   0.0000      -0.110754        -3.0138

                 SPIN DOWN ORBITALS
  NO   OCC          E(Eh)            E(eV)
   0   1.0000     -14.572100      -396.5270
   1   1.0000     -10.448167      -284.3091
   2   1.0000     -10.386843      -282.6404
   3   1.0000     -10.385935      -282.6157
   4   1.0000     -10.385916      -282.6151
   5   1.0000     -10.377032      -282.3734
   6   1.0000     -10.377013      -282.3729
   7   1.0000      -1.143690       -31.1214
   8   1.0000      -1.042904       -28.3789
   9   1.0000      -0.944668       -25.7057
  10   1.0000      -0.932099       -25.3637
  11   1.0000      -0.816740       -22.2246
  12   1.0000      -0.804591       -21.8940
  13   1.0000      -0.731103       -19.8943
  14   1.0000      -0.725436       -19.7401
  15   1.0000      -0.680995       -18.5308
  16   1.0000      -0.638984       -17.3876
  17   1.0000      -0.628279       -17.0963
  18   1.0000      -0.613292       -16.6885
  19   1.0000      -0.586223       -15.9519
  20   1.0000      -0.557984       -15.1835
  21   1.0000      -0.538824       -14.6621
  22   1.0000      -0.506547       -13.7838
  23   1.0000      -0.448721       -12.2103
  24   0.0000      -0.357935        -9.7399
  25   0.0000      -0.200300        -5.4504
  26   0.0000      -0.185902        -5.0587
  27   0.0000      -0.145284        -3.9534
  28   0.0000      -0.114221        -3.1081

MULLIKEN ATOMIC CHARGES AND SPIN POPULATIONS
--------------------------------------------
   0 C :    0.227838    0.136414
   1 C :    0.040883    0.163470
   2 C :   -0.037265   -0.063676
   3 C :    0.031838    0.342380
   4 C :   -0.038073   -0.063792
   5 C :    0.042244    0.163646
   6 H :    0.091187   -0.005760
   7 H :    0.110069    0.000576
   8 H :    0.121859   -0.012513
   9 H :    0.110792    0.000568
  10 H :    0.090413   -0.005774
  11 N :   -0.223396    0.355429
  12 H :    0.215725   -0.005481
  13 H :    0.215887   -0.005487
Sum of atomic charges         :    1.0000000

LOEWDIN ATOMIC CHARGES AND SPIN POPULATIONS
-------------------------------------------
   0 C :   -0.162497    0.157489
   1 C :    0.144671    0.116886
   2 C :    0.132518    0.021162
   3 C :    0.172066    0.208551
   4 C :    0.132536    0.021143
   5 C :    0.144652    0.116886
   6 H :   -0.030079    0.010603
   7 H :   -0.026239   -0.004159
   8 H :   -0.021733    0.023241
   9 H :   -0.026234   -0.004164
  10 H :   -0.030110    0.010605
  11 N :    0.805927    0.256799
  12 H :   -0.117702    0.032473
  13 H :   -0.117778    0.032483

  Mayer bond orders larger than 0.100000
B(  0-C ,  1-C ) :   1.0980 B(  0-C ,  5-C ) :   1.0972 B(  0-C , 11-N ) :   1.2674
B(  1-C ,  2-C ) :   1.4302 B(  1-C ,  6-H ) :   0.9549 B(  2-C ,  3-C ) :   1.2305
B(  2-C ,  7-H ) :   0.9541 B(  3-C ,  4-C ) :   1.2316 B(  3-C ,  8-H ) :   0.9494
B(  4-C ,  5-C ) :   1.4302 B(  4-C ,  9-H ) :   0.9541 B(  5-C , 10-H ) :   0.9551
B( 11-N , 12-H ) :   0.9444 B( 11-N , 13-H ) :   0.9442

Dispersion correction           -0.018866650
FINAL SINGLE POINT ENERGY      -287.292378936390

DIPOLE MOMENT
-------------
                                X             Y             Z
Electronic contribution:      0.01386       0.17043      -0.19061
Nuclear contribution   :      0.05809       0.72683       0.52928
                        -----------------------------------------
Total Dipole Moment    :      0.07195       0.89726       0.33867
                        -----------------------------------------
Magnitude (a.u.)       :      0.96174
Magnitude (Debye)      :      2.44455

Rotational constants in cm-1:     0.186570     0.086136     0.059004
Rotational constants in MHz :  5593.219850  2582.294403  1768.887501

                             ****ORCA TERMINATED NORMALLY****
TOTAL RUN TIME: 0 days 0 hours 35 minutes 16 seconds 824 msec
